                         Program Version 4.0.1.2 - RELEASE -
|  1> !HF 6-31G** Opt
|  2>
|  3> *xyz 0 1
|  4>   C   0.00161639472513      2.59675356603881      1.38582121723273
|  5>   H   0.00286184855896      2.59534136846259      2.46179264930183
|  6>   C   1.20096334849037      2.59668363482115      0.69152293463103
|  7>   H   2.13340687848547      2.59520639762836      1.22842729943878
|  8>   C   1.19935680486862      2.59657739482203     -0.69429109549787
|  9>   H   2.13055436601754      2.59502085376589     -1.23335357644460
| 10>   C   -0.00159527601653      2.59655146049602     -1.38580800934749
| 11>   H   -0.00283938796944      2.59495768046308     -2.46177972241731
| 12>   C   -1.20094100557001      2.59661134310781     -0.69150958556134
| 13>   H   -2.13338445829850      2.59504645595629     -1.22841455558407
| 14>   C   -1.19933544934681      2.59671546808275      0.69430384640366
| 15>   H   -2.13053262211895      2.59525430953044      1.23336649793485
| 16>   C   -1.19935924658204     -2.59666729206645     -0.69430307592028
| 17>   H   -2.13055344969286     -2.59518323118061     -1.23337103554714
| 18>   C   0.00159311229147     -2.59657505780625     -1.38581890975650
| 19>   H   0.00284277602523     -2.59501988681359     -2.46179065339666
| 20>   C   1.20094088067857     -2.59655762277821     -0.69152302345501
| 21>   H   2.13338281182835     -2.59498607304308     -1.22843010593999
| 22>   C   1.19933702104171     -2.59662898119135      0.69429040164388
| 23>   H   2.13053263538228     -2.59510414824704      1.23335554938773
| 24>   C   -0.00161647436841     -2.59671785436419      1.38580662053173
| 25>   H   -0.00286245259316     -2.59525134344652      2.46177827880707
| 26>   C   -1.20096369918007     -2.59673704401962      0.69151041653528
| 27>   H   -2.13340535665690     -2.59529139821828      1.22841763701968
| 28> *
| 29>
| 30>                          ****END OF INPUT****
 Total Charge           Charge          ....    0
 Multiplicity           Mult            ....    1
 Number of Electrons    NEL             ....   84
FINAL SINGLE POINT ENERGY      -461.426367936322
                    ***********************HURRAY********************

CARTESIAN COORDINATES (ANGSTROEM)
---------------------------------
  C      0.001619    2.599318    1.385884
  H      0.002866    2.598123    2.461860
  C      1.201017    2.599255    0.691552
  H      2.133464    2.598020    1.228457
  C      1.199409    2.599140   -0.694324
  H      2.130609    2.597825   -1.233390
  C     -0.001597    2.599114   -1.385870
  H     -0.002844    2.597761   -2.461846
  C     -1.200995    2.599181   -0.691539
  H     -2.133442    2.597840   -1.228444
  C     -1.199387    2.599290    0.694336
  H     -2.130586    2.598072    1.233403
  C     -1.199413   -2.599231   -0.694337
  H     -2.130610   -2.597966   -1.233407
  C      0.001595   -2.599147   -1.385880
  H      0.002846   -2.597833   -2.461856
  C      1.200996   -2.599119   -0.691552
  H      2.133441   -2.597790   -1.228459
  C      1.199390   -2.599193    0.694324
  H      2.130587   -2.597909    1.233392
  C     -0.001618   -2.599288    1.385868
  H     -0.002866   -2.598043    2.461844
  C     -1.201017   -2.599312    0.691538
  H     -2.133463   -2.598110    1.228446

 Multiplicity           Mult            ....    1
 Number of Electrons    NEL             ....   84
 Basis Dimension        Dim             ....  228

ORBITAL ENERGIES
----------------

  NO   OCC          E(Eh)            E(eV)
   0   2.0000     -11.224918      -305.4456
   1   2.0000     -11.224918      -305.4455
   2   2.0000     -11.224347      -305.4300
   3   2.0000     -11.224347      -305.4300
   4   2.0000     -11.224346      -305.4300
   5   2.0000     -11.224346      -305.4300
   6   2.0000     -11.223115      -305.3965
   7   2.0000     -11.223115      -305.3965
   8   2.0000     -11.223115      -305.3965
   9   2.0000     -11.223115      -305.3965
  10   2.0000     -11.222520      -305.3803
  11   2.0000     -11.222520      -305.3803
  12   2.0000      -1.144385       -31.1403
  13   2.0000      -1.144303       -31.1381
  14   2.0000      -1.007693       -27.4207
  15   2.0000      -1.007693       -27.4207
  16   2.0000      -1.007621       -27.4188
  17   2.0000      -1.007621       -27.4187
  18   2.0000      -0.816262       -22.2116
  19   2.0000      -0.816262       -22.2116
  20   2.0000      -0.816204       -22.2100
  21   2.0000      -0.816204       -22.2100
  22   2.0000      -0.703041       -19.1307
  23   2.0000      -0.702964       -19.1286
  24   2.0000      -0.635531       -17.2937
  25   2.0000      -0.635459       -17.2917
  26   2.0000      -0.610279       -16.6065
  27   2.0000      -0.610259       -16.6060
  28   2.0000      -0.579821       -15.7777
  29   2.0000      -0.579820       -15.7777
  30   2.0000      -0.579756       -15.7760
  31   2.0000      -0.579755       -15.7759
  32   2.0000      -0.495097       -13.4723
  33   2.0000      -0.493152       -13.4194
  34   2.0000      -0.485149       -13.2016
  35   2.0000      -0.485149       -13.2016
  36   2.0000      -0.485100       -13.2002
  37   2.0000      -0.485100       -13.2002
  38   2.0000      -0.327878        -8.9220
  39   2.0000      -0.327878        -8.9220
  40   2.0000      -0.325996        -8.8708
  41   2.0000      -0.325996        -8.8708
  42   0.0000       0.151543         4.1237
  43   0.0000       0.151544         4.1237
  44   0.0000       0.154126         4.1940
  45   0.0000       0.154126         4.1940
  46   0.0000       0.238293         6.4843

MULLIKEN ATOMIC CHARGES
-----------------------
   0 C :   -0.145244
   1 H :    0.145245
   2 C :   -0.145245
   3 H :    0.145244
   4 C :   -0.145244
   5 H :    0.145244
   6 C :   -0.145244
   7 H :    0.145245
   8 C :   -0.145244
   9 H :    0.145245
  10 C :   -0.145245
  11 H :    0.145244
  12 C :   -0.145244
  13 H :    0.145245
  14 C :   -0.145245
  15 H :    0.145244
  16 C :   -0.145244
  17 H :    0.145244
  18 C :   -0.145244
  19 H :    0.145245
  20 C :   -0.145245
  21 H :    0.145245
  22 C :   -0.145245
  23 H :    0.145244
Sum of atomic charges:   -0.0000000

LOEWDIN ATOMIC CHARGES
----------------------
   0 C :   -0.073508
   1 H :    0.073508
   2 C :   -0.073508
   3 H :    0.073508
   4 C :   -0.073508
   5 H :    0.073508
   6 C :   -0.073507
   7 H :    0.073508
   8 C :   -0.073508
   9 H :    0.073508
  10 C :   -0.073508
  11 H :    0.073508
  12 C :   -0.073508
  13 H :    0.073508
  14 C :   -0.073508
  15 H :    0.073507
  16 C :   -0.073508
  17 H :    0.073508
  18 C :   -0.073507
  19 H :    0.073508
  20 C :   -0.073508
  21 H :    0.073508
  22 C :   -0.073508
  23 H :    0.073508

  Mayer bond orders larger than 0.1
B(  0-C ,  1-H ) :   0.9631 B(  0-C ,  2-C ) :   1.4510 B(  0-C , 10-C ) :   1.4510
B(  2-C ,  3-H ) :   0.9631 B(  2-C ,  4-C ) :   1.4510 B(  4-C ,  5-H ) :   0.9631
B(  4-C ,  6-C ) :   1.4510 B(  6-C ,  7-H ) :   0.9631 B(  6-C ,  8-C ) :   1.4510
B(  8-C ,  9-H ) :   0.9631 B(  8-C , 10-C ) :   1.4510 B( 10-C , 11-H ) :   0.9631
B( 12-C , 13-H ) :   0.9631 B( 12-C , 14-C ) :   1.4510 B( 12-C , 22-C ) :   1.4510
B( 14-C , 15-H ) :   0.9631 B( 14-C , 16-C ) :   1.4510 B( 16-C , 17-H ) :   0.9631
B( 16-C , 18-C ) :   1.4510 B( 18-C , 19-H ) :   0.9631 B( 18-C , 20-C ) :   1.4510
B( 20-C , 21-H ) :   0.9631 B( 20-C , 22-C ) :   1.4510 B( 22-C , 23-H ) :   0.9631

FINAL SINGLE POINT ENERGY      -461.426370251646

DIPOLE MOMENT
-------------
                                X             Y             Z
Electronic contribution:     -0.00000       0.00001       0.00000
Nuclear contribution   :      0.00000      -0.00001      -0.00000
                        -----------------------------------------
Total Dipole Moment    :      0.00000      -0.00000       0.00000
                        -----------------------------------------
Magnitude (a.u.)       :      0.00000
Magnitude (Debye)      :      0.00001

                             ****ORCA TERMINATED NORMALLY****
TOTAL RUN TIME: 0 days 0 hours 2 minutes 22 seconds 566 msec
