                         Program Version 4.0.1.2 - RELEASE -
|  1> !PBE 6-31G** Opt
|  2>
|  3> *xyz 0 1
|  4> C      0.000000000000     1.950000000000     1.391500000000
|  5> H      0.000000000000     1.950000000000     2.471500000000
|  6> C      1.205074349366     1.950000000000     0.695750000000
|  7> H      2.140381785453     1.950000000000     1.235750000000
|  8> C      1.205074349366     1.950000000000    -0.695750000000
|  9> H      2.140381785453     1.950000000000    -1.235750000000
| 10> C     -0.000000000000     1.950000000000    -1.391500000000
| 11> H     -0.000000000000     1.950000000000    -2.471500000000
| 12> C     -1.205074349366     1.950000000000    -0.695750000000
| 13> H     -2.140381785453     1.950000000000    -1.235750000000
| 14> C     -1.205074349366     1.950000000000     0.695750000000
| 15> H     -2.140381785453     1.950000000000     1.235750000000
| 16> C     -1.205074349366    -1.950000000000    -0.695750000000
| 17> H     -2.140381785453    -1.950000000000    -1.235750000000
| 18> C     -0.000000000000    -1.950000000000    -1.391500000000
| 19> H     -0.000000000000    -1.950000000000    -2.471500000000
| 20> C      1.205074349366    -1.950000000000    -0.695750000000
| 21> H      2.140381785453    -1.950000000000    -1.235750000000
| 22> C      1.205074349366    -1.950000000000     0.695750000000
| 23> H      2.140381785453    -1.950000000000     1.235750000000
| 24> C     -0.000000000000    -1.950000000000     1.391500000000
| 25> H     -0.000000000000    -1.950000000000     2.471500000000
| 26> C     -1.205074349366    -1.950000000000     0.695750000000
| 27> H     -2.140381785453    -1.950000000000     1.235750000000
| 28> *
| 29>
| 30>                          ****END OF INPUT****
 Total Charge           Charge          ....    0
 Multiplicity           Mult            ....    1
 Number of Electrons    NEL             ....   84
FINAL SINGLE POINT ENERGY      -463.874950341313
FINAL SINGLE POINT ENERGY      -463.877877096351
FINAL SINGLE POINT ENERGY      -463.878000058248
FINAL SINGLE POINT ENERGY      -463.878047798635
FINAL SINGLE POINT ENERGY      -463.878094717869
FINAL SINGLE POINT ENERGY      -463.878144385716
FINAL SINGLE POINT ENERGY      -463.878187461163
FINAL SINGLE POINT ENERGY      -463.878227734532
FINAL SINGLE POINT ENERGY      -463.878266740168
FINAL SINGLE POINT ENERGY      -463.878303700631
FINAL SINGLE POINT ENERGY      -463.878413689182
FINAL SINGLE POINT ENERGY      -463.878432967200
FINAL SINGLE POINT ENERGY      -463.878449099370
FINAL SINGLE POINT ENERGY      -463.878461960529
FINAL SINGLE POINT ENERGY      -463.878471733598
FINAL SINGLE POINT ENERGY      -463.878478727475
FINAL SINGLE POINT ENERGY      -463.878483212970
FINAL SINGLE POINT ENERGY      -463.878485475088
FINAL SINGLE POINT ENERGY      -463.878485900598
                    ***********************HURRAY********************

CARTESIAN COORDINATES (ANGSTROEM)
---------------------------------
  C      0.000240    2.128392    1.402754
  H      0.000433    2.127549    2.497627
  C      1.214843    2.128259    0.701112
  H      2.162825    2.127568    1.248267
  C      1.214608    2.128308   -0.701549
  H      2.162399    2.127635   -1.249030
  C     -0.000246    2.128347   -1.402757
  H     -0.000438    2.127519   -2.497629
  C     -1.214852    2.128309   -0.701122
  H     -2.162830    2.127649   -1.248279
  C     -1.214609    2.128319    0.701538
  H     -2.162399    2.127652    1.249020
  C     -1.214603   -2.128312   -0.701537
  H     -2.162396   -2.127591   -1.249014
  C      0.000246   -2.128333   -1.402750
  H      0.000432   -2.127522   -2.497623
  C      1.214855   -2.128309   -0.701118
  H      2.162842   -2.127648   -1.248263
  C      1.214603   -2.128269    0.701543
  H      2.162397   -2.127551    1.249021
  C     -0.000244   -2.128385    1.402764
  H     -0.000426   -2.127605    2.497636
  C     -1.214847   -2.128320    0.701123
  H     -2.162833   -2.127661    1.248267

 Multiplicity           Mult            ....    1
 Number of Electrons    NEL             ....   84
 Basis Dimension        Dim             ....  228

ORBITAL ENERGIES
----------------

  NO   OCC          E(Eh)            E(eV)
   0   2.0000      -9.890593      -269.1367
   1   2.0000      -9.890580      -269.1364
   2   2.0000      -9.890570      -269.1361
   3   2.0000      -9.890555      -269.1357
   4   2.0000      -9.890335      -269.1297
   5   2.0000      -9.890319      -269.1293
   6   2.0000      -9.890217      -269.1265
   7   2.0000      -9.890206      -269.1262
   8   2.0000      -9.890082      -269.1228
   9   2.0000      -9.890072      -269.1225
  10   2.0000      -9.890036      -269.1216
  11   2.0000      -9.890027      -269.1213
  12   2.0000      -0.761437       -20.7197
  13   2.0000      -0.760761       -20.7013
  14   2.0000      -0.661598       -18.0030
  15   2.0000      -0.661563       -18.0021
  16   2.0000      -0.660981       -17.9862
  17   2.0000      -0.660945       -17.9852
  18   2.0000      -0.529845       -14.4178
  19   2.0000      -0.529840       -14.4177
  20   2.0000      -0.529322       -14.4036
  21   2.0000      -0.529321       -14.4035
  22   2.0000      -0.457680       -12.4541
  23   2.0000      -0.457047       -12.4369
  24   2.0000      -0.399926       -10.8825
  25   2.0000      -0.399333       -10.8664
  26   2.0000      -0.381762       -10.3883
  27   2.0000      -0.381558       -10.3827
  28   2.0000      -0.361156        -9.8276
  29   2.0000      -0.361147        -9.8273
  30   2.0000      -0.360619        -9.8129
  31   2.0000      -0.360609        -9.8127
  32   2.0000      -0.317334        -8.6351
  33   2.0000      -0.308436        -8.3930
  34   2.0000      -0.288564        -7.8522
  35   2.0000      -0.288529        -7.8513
  36   2.0000      -0.288156        -7.8411
  37   2.0000      -0.288118        -7.8401
  38   2.0000      -0.217752        -5.9253
  39   2.0000      -0.217710        -5.9242
  40   2.0000      -0.209931        -5.7125
  41   2.0000      -0.209926        -5.7124
  42   0.0000      -0.027702        -0.7538
  43   0.0000      -0.027325        -0.7436
  44   0.0000      -0.019268        -0.5243
  45   0.0000      -0.019012        -0.5173
  46   0.0000       0.064346         1.7509

MULLIKEN ATOMIC CHARGES
-----------------------
   0 C :   -0.101813
   1 H :    0.098700
   2 C :   -0.088747
   3 H :    0.090289
   4 C :   -0.088736
   5 H :    0.090298
   6 C :   -0.101809
   7 H :    0.098698
   8 C :   -0.088735
   9 H :    0.090290
  10 C :   -0.088732
  11 H :    0.090296
  12 C :   -0.088728
  13 H :    0.090297
  14 C :   -0.101808
  15 H :    0.098698
  16 C :   -0.088743
  17 H :    0.090291
  18 C :   -0.088741
  19 H :    0.090296
  20 C :   -0.101810
  21 H :    0.098700
  22 C :   -0.088740
  23 H :    0.090289
Sum of atomic charges:   -0.0000000

LOEWDIN ATOMIC CHARGES
----------------------
   0 C :   -0.078793
   1 H :    0.078162
   2 C :   -0.076260
   3 H :    0.076571
   4 C :   -0.076261
   5 H :    0.076574
   6 C :   -0.078787
   7 H :    0.078161
   8 C :   -0.076255
   9 H :    0.076571
  10 C :   -0.076255
  11 H :    0.076573
  12 C :   -0.076255
  13 H :    0.076573
  14 C :   -0.078787
  15 H :    0.078161
  16 C :   -0.076261
  17 H :    0.076572
  18 C :   -0.076260
  19 H :    0.076572
  20 C :   -0.078793
  21 H :    0.078162
  22 C :   -0.076255
  23 H :    0.076571

  Mayer bond orders larger than 0.1
B(  0-C ,  1-H ) :   0.9348 B(  0-C ,  2-C ) :   1.4475 B(  0-C , 10-C ) :   1.4475
B(  2-C ,  3-H ) :   0.9359 B(  2-C ,  4-C ) :   1.4482 B(  4-C ,  5-H ) :   0.9359
B(  4-C ,  6-C ) :   1.4475 B(  6-C ,  7-H ) :   0.9348 B(  6-C ,  8-C ) :   1.4475
B(  8-C ,  9-H ) :   0.9359 B(  8-C , 10-C ) :   1.4482 B( 10-C , 11-H ) :   0.9359
B( 12-C , 13-H ) :   0.9359 B( 12-C , 14-C ) :   1.4475 B( 12-C , 22-C ) :   1.4482
B( 14-C , 15-H ) :   0.9348 B( 14-C , 16-C ) :   1.4475 B( 16-C , 17-H ) :   0.9359
B( 16-C , 18-C ) :   1.4482 B( 18-C , 19-H ) :   0.9359 B( 18-C , 20-C ) :   1.4475
B( 20-C , 21-H ) :   0.9348 B( 20-C , 22-C ) :   1.4475 B( 22-C , 23-H ) :   0.9359

FINAL SINGLE POINT ENERGY      -463.878485938270

DIPOLE MOMENT
-------------
                                X             Y             Z
Electronic contribution:     -0.00007       0.00001      -0.00003
Nuclear contribution   :      0.00001      -0.00001       0.00000
                        -----------------------------------------
Total Dipole Moment    :     -0.00006      -0.00000      -0.00003
                        -----------------------------------------
Magnitude (a.u.)       :      0.00007
Magnitude (Debye)      :      0.00018

                             ****ORCA TERMINATED NORMALLY****
TOTAL RUN TIME: 0 days 0 hours 11 minutes 43 seconds 321 msec
