                         Program Version 4.0.1.2 - RELEASE -
|  1> !PBE D3BJ 6-31G** Opt
|  2>
|  3> *xyz 0 1
|  4> C      0.000000000000     1.950000000000     1.391500000000
|  5> H      0.000000000000     1.950000000000     2.471500000000
|  6> C      1.205074349366     1.950000000000     0.695750000000
|  7> H      2.140381785453     1.950000000000     1.235750000000
|  8> C      1.205074349366     1.950000000000    -0.695750000000
|  9> H      2.140381785453     1.950000000000    -1.235750000000
| 10> C     -0.000000000000     1.950000000000    -1.391500000000
| 11> H     -0.000000000000     1.950000000000    -2.471500000000
| 12> C     -1.205074349366     1.950000000000    -0.695750000000
| 13> H     -2.140381785453     1.950000000000    -1.235750000000
| 14> C     -1.205074349366     1.950000000000     0.695750000000
| 15> H     -2.140381785453     1.950000000000     1.235750000000
| 16> C     -1.205074349366    -1.950000000000    -0.695750000000
| 17> H     -2.140381785453    -1.950000000000    -1.235750000000
| 18> C     -0.000000000000    -1.950000000000    -1.391500000000
| 19> H     -0.000000000000    -1.950000000000    -2.471500000000
| 20> C      1.205074349366    -1.950000000000    -0.695750000000
| 21> H      2.140381785453    -1.950000000000    -1.235750000000
| 22> C      1.205074349366    -1.950000000000     0.695750000000
| 23> H      2.140381785453    -1.950000000000     1.235750000000
| 24> C     -0.000000000000    -1.950000000000     1.391500000000
| 25> H     -0.000000000000    -1.950000000000     2.471500000000
| 26> C     -1.205074349366    -1.950000000000     0.695750000000
| 27> H     -2.140381785453    -1.950000000000     1.235750000000
| 28> *
| 29>
| 30>                          ****END OF INPUT****
 Total Charge           Charge          ....    0
 Multiplicity           Mult            ....    1
 Number of Electrons    NEL             ....   84
Dispersion correction           -0.026943616
FINAL SINGLE POINT ENERGY      -463.901893957005
Dispersion correction            ... done
Dispersion correction           -0.026825480
FINAL SINGLE POINT ENERGY      -463.904672507688
Dispersion correction            ... done
Dispersion correction           -0.026831423
FINAL SINGLE POINT ENERGY      -463.904751334097
Dispersion correction            ... done
FINAL SINGLE POINT ENERGY      -463.904773383210
FINAL SINGLE POINT ENERGY      -463.904804726484
FINAL SINGLE POINT ENERGY      -463.904833098345
FINAL SINGLE POINT ENERGY      -463.904857280195
FINAL SINGLE POINT ENERGY      -463.904875033837
Dispersion correction            ... done
Dispersion correction           -0.027392584
FINAL SINGLE POINT ENERGY      -463.904886966212
Dispersion correction            ... done
Dispersion correction           -0.027500947
FINAL SINGLE POINT ENERGY      -463.904892404534
Dispersion correction            ... done
                    ***********************HURRAY********************

CARTESIAN COORDINATES (ANGSTROEM)
---------------------------------
  C     -0.000121    1.885604    1.401982
  H     -0.000222    1.878536    2.496559
  C      1.214047    1.885361    0.701045
  H      2.161620    1.878512    1.248372
  C      1.214158    1.885265   -0.700824
  H      2.161825    1.878428   -1.247992
  C      0.000121    1.885604   -1.401989
  H      0.000220    1.878745   -2.496566
  C     -1.214041    1.885361   -0.701041
  H     -2.161612    1.878293   -1.248372
  C     -1.214165    1.885383    0.700828
  H     -2.161830    1.878529    1.247998
  C     -1.214158   -1.885309   -0.700826
  H     -2.161824   -1.878259   -1.247995
  C     -0.000122   -1.885653   -1.401993
  H     -0.000212   -1.878787   -2.496569
  C      1.214036   -1.885267   -0.701039
  H      2.161605   -1.878428   -1.248377
  C      1.214165   -1.885305    0.700830
  H      2.161830   -1.878465    1.247999
  C      0.000122   -1.885663    1.401986
  H      0.000216   -1.878586    2.496562
  C     -1.214044   -1.885385    0.701043
  H     -2.161612   -1.878514    1.248379

 Multiplicity           Mult            ....    1
 Number of Electrons    NEL             ....   84
 Basis Dimension        Dim             ....  228

ORBITAL ENERGIES
----------------

  NO   OCC          E(Eh)            E(eV)
   0   2.0000      -9.889350      -269.1029
   1   2.0000      -9.889330      -269.1024
   2   2.0000      -9.889315      -269.1019
   3   2.0000      -9.889289      -269.1012
   4   2.0000      -9.889086      -269.0957
   5   2.0000      -9.889043      -269.0945
   6   2.0000      -9.888963      -269.0924
   7   2.0000      -9.888934      -269.0916
   8   2.0000      -9.888824      -269.0886
   9   2.0000      -9.888797      -269.0878
  10   2.0000      -9.888777      -269.0873
  11   2.0000      -9.888752      -269.0866
  12   2.0000      -0.761351       -20.7174
  13   2.0000      -0.759411       -20.6646
  14   2.0000      -0.661419       -17.9981
  15   2.0000      -0.661391       -17.9974
  16   2.0000      -0.659578       -17.9480
  17   2.0000      -0.659563       -17.9476
  18   2.0000      -0.529600       -14.4111
  19   2.0000      -0.529597       -14.4111
  20   2.0000      -0.528032       -14.3685
  21   2.0000      -0.528026       -14.3683
  22   2.0000      -0.457649       -12.4533
  23   2.0000      -0.455893       -12.4055
  24   2.0000      -0.399701       -10.8764
  25   2.0000      -0.397995       -10.8300
  26   2.0000      -0.381203       -10.3731
  27   2.0000      -0.380531       -10.3548
  28   2.0000      -0.360896        -9.8205
  29   2.0000      -0.360882        -9.8201
  30   2.0000      -0.359405        -9.7799
  31   2.0000      -0.359383        -9.7793
  32   2.0000      -0.321238        -8.7413
  33   2.0000      -0.302443        -8.2299
  34   2.0000      -0.288107        -7.8398
  35   2.0000      -0.288061        -7.8385
  36   2.0000      -0.286969        -7.8088
  37   2.0000      -0.286913        -7.8073
  38   2.0000      -0.221197        -6.0191
  39   2.0000      -0.221111        -6.0167
  40   2.0000      -0.204399        -5.5620
  41   2.0000      -0.204359        -5.5609
  42   0.0000      -0.030987        -0.8432
  43   0.0000      -0.030694        -0.8352
  44   0.0000      -0.013632        -0.3709
  45   0.0000      -0.013357        -0.3635
  46   0.0000       0.061514         1.6739

MULLIKEN ATOMIC CHARGES
-----------------------
   0 C :   -0.100671
   1 H :    0.097308
   2 C :   -0.087086
   3 H :    0.088773
   4 C :   -0.087087
   5 H :    0.088767
   6 C :   -0.100654
   7 H :    0.097308
   8 C :   -0.087102
   9 H :    0.088773
  10 C :   -0.087098
  11 H :    0.088771
  12 C :   -0.087103
  13 H :    0.088769
  14 C :   -0.100658
  15 H :    0.097308
  16 C :   -0.087083
  17 H :    0.088770
  18 C :   -0.087086
  19 H :    0.088769
  20 C :   -0.100676
  21 H :    0.097309
  22 C :   -0.087094
  23 H :    0.088774
Sum of atomic charges:   -0.0000000

LOEWDIN ATOMIC CHARGES
----------------------
   0 C :   -0.078230
   1 H :    0.077527
   2 C :   -0.075540
   3 H :    0.075893
   4 C :   -0.075533
   5 H :    0.075890
   6 C :   -0.078226
   7 H :    0.077527
   8 C :   -0.075544
   9 H :    0.075892
  10 C :   -0.075548
  11 H :    0.075892
  12 C :   -0.075543
  13 H :    0.075891
  14 C :   -0.078227
  15 H :    0.077528
  16 C :   -0.075533
  17 H :    0.075891
  18 C :   -0.075539
  19 H :    0.075891
  20 C :   -0.078231
  21 H :    0.077527
  22 C :   -0.075548
  23 H :    0.075893

  Mayer bond orders larger than 0.1
B(  0-C ,  1-H ) :   0.9348 B(  0-C ,  2-C ) :   1.4475 B(  0-C , 10-C ) :   1.4475
B(  2-C ,  3-H ) :   0.9359 B(  2-C ,  4-C ) :   1.4481 B(  4-C ,  5-H ) :   0.9359
B(  4-C ,  6-C ) :   1.4475 B(  6-C ,  7-H ) :   0.9348 B(  6-C ,  8-C ) :   1.4475
B(  8-C ,  9-H ) :   0.9359 B(  8-C , 10-C ) :   1.4481 B( 10-C , 11-H ) :   0.9359
B( 12-C , 13-H ) :   0.9359 B( 12-C , 14-C ) :   1.4475 B( 12-C , 22-C ) :   1.4481
B( 14-C , 15-H ) :   0.9348 B( 14-C , 16-C ) :   1.4475 B( 16-C , 17-H ) :   0.9359
B( 16-C , 18-C ) :   1.4481 B( 18-C , 19-H ) :   0.9359 B( 18-C , 20-C ) :   1.4475
B( 20-C , 21-H ) :   0.9348 B( 20-C , 22-C ) :   1.4475 B( 22-C , 23-H ) :   0.9359

Dispersion correction           -0.027520817
FINAL SINGLE POINT ENERGY      -463.904892910208

DIPOLE MOMENT
-------------
                                X             Y             Z
Electronic contribution:      0.00008      -0.00000      -0.00005
Nuclear contribution   :      0.00001       0.00000      -0.00000
                        -----------------------------------------
Total Dipole Moment    :      0.00009       0.00000      -0.00005
                        -----------------------------------------
Magnitude (a.u.)       :      0.00010
Magnitude (Debye)      :      0.00025

                             ****ORCA TERMINATED NORMALLY****
TOTAL RUN TIME: 0 days 0 hours 6 minutes 11 seconds 60 msec
