                         Program Version 4.0.1.2 - RELEASE -
|  1> !MP2 6-31G** Opt
|  2>
|  3> *xyz 0 1
|  4> C      0.000000000000     1.950000000000     1.391500000000
|  5> H      0.000000000000     1.950000000000     2.471500000000
|  6> C      1.205074349366     1.950000000000     0.695750000000
|  7> H      2.140381785453     1.950000000000     1.235750000000
|  8> C      1.205074349366     1.950000000000    -0.695750000000
|  9> H      2.140381785453     1.950000000000    -1.235750000000
| 10> C     -0.000000000000     1.950000000000    -1.391500000000
| 11> H     -0.000000000000     1.950000000000    -2.471500000000
| 12> C     -1.205074349366     1.950000000000    -0.695750000000
| 13> H     -2.140381785453     1.950000000000    -1.235750000000
| 14> C     -1.205074349366     1.950000000000     0.695750000000
| 15> H     -2.140381785453     1.950000000000     1.235750000000
| 16> C     -1.205074349366    -1.950000000000    -0.695750000000
| 17> H     -2.140381785453    -1.950000000000    -1.235750000000
| 18> C     -0.000000000000    -1.950000000000    -1.391500000000
| 19> H     -0.000000000000    -1.950000000000    -2.471500000000
| 20> C      1.205074349366    -1.950000000000    -0.695750000000
| 21> H      2.140381785453    -1.950000000000    -1.235750000000
| 22> C      1.205074349366    -1.950000000000     0.695750000000
| 23> H      2.140381785453    -1.950000000000     1.235750000000
| 24> C     -0.000000000000    -1.950000000000     1.391500000000
| 25> H     -0.000000000000    -1.950000000000     2.471500000000
| 26> C     -1.205074349366    -1.950000000000     0.695750000000
| 27> H     -2.140381785453    -1.950000000000     1.235750000000
| 28> *
| 29>
| 30>                          ****END OF INPUT****
 Total Charge           Charge          ....    0
 Multiplicity           Mult            ....    1
 Number of Electrons    NEL             ....   84
MP2 TOTAL ENERGY:     -462.996040703 Eh
FINAL SINGLE POINT ENERGY      -462.996040702926
MP2 TOTAL ENERGY:     -462.996503700 Eh
FINAL SINGLE POINT ENERGY      -462.996503699829
MP2 TOTAL ENERGY:     -462.996536802 Eh
FINAL SINGLE POINT ENERGY      -462.996536801543
MP2 TOTAL ENERGY:     -462.996571970 Eh
FINAL SINGLE POINT ENERGY      -462.996571970243
MP2 TOTAL ENERGY:     -462.996605234 Eh
FINAL SINGLE POINT ENERGY      -462.996605234258
MP2 TOTAL ENERGY:     -462.996639513 Eh
FINAL SINGLE POINT ENERGY      -462.996639512971
MP2 TOTAL ENERGY:     -462.996667712 Eh
FINAL SINGLE POINT ENERGY      -462.996667711588
MP2 TOTAL ENERGY:     -462.996691416 Eh
FINAL SINGLE POINT ENERGY      -462.996691415629
MP2 TOTAL ENERGY:     -462.996709990 Eh
FINAL SINGLE POINT ENERGY      -462.996709990307
MP2 TOTAL ENERGY:     -462.996722991 Eh
FINAL SINGLE POINT ENERGY      -462.996722991133
MP2 TOTAL ENERGY:     -462.996729072 Eh
FINAL SINGLE POINT ENERGY      -462.996729072361
                    ***********************HURRAY********************

CARTESIAN COORDINATES (ANGSTROEM)
---------------------------------
  C     -0.000148    1.868919    1.397128
  H     -0.000267    1.867115    2.480729
  C      1.209891    1.868981    0.698703
  H      2.148257    1.867416    1.240603
  C      1.210030    1.868906   -0.698435
  H      2.148513    1.867401   -1.240136
  C      0.000149    1.868912   -1.397134
  H      0.000268    1.867331   -2.480734
  C     -1.209881    1.868970   -0.698695
  H     -2.148247    1.867189   -1.240598
  C     -1.210037    1.868999    0.698443
  H     -2.148517    1.867429    1.240146
  C     -1.210022   -1.868919   -0.698436
  H     -2.148507   -1.867115   -1.240133
  C     -0.000149   -1.868981   -1.397148
  H     -0.000265   -1.867416   -2.480747
  C      1.209877   -1.868906   -0.698699
  H      2.148246   -1.867401   -1.240599
  C      1.210028   -1.868912    0.698438
  H      2.148512   -1.867331    1.240135
  C      0.000147   -1.868970    1.397135
  H      0.000265   -1.867189    2.480736
  C     -1.209887   -1.868999    0.698701
  H     -2.148256   -1.867429    1.240597

 Multiplicity           Mult            ....    1
 Number of Electrons    NEL             ....   84
 Basis Dimension        Dim             ....  228

ORBITAL ENERGIES
----------------

  NO   OCC          E(Eh)            E(eV)
   0   2.0000     -11.226270      -305.4823
   1   2.0000     -11.226253      -305.4819
   2   2.0000     -11.225730      -305.4677
   3   2.0000     -11.225730      -305.4677
   4   2.0000     -11.225714      -305.4672
   5   2.0000     -11.225714      -305.4672
   6   2.0000     -11.224560      -305.4358
   7   2.0000     -11.224559      -305.4358
   8   2.0000     -11.224550      -305.4355
   9   2.0000     -11.224550      -305.4355
  10   2.0000     -11.223994      -305.4204
  11   2.0000     -11.223987      -305.4202
  12   2.0000      -1.135413       -30.8962
  13   2.0000      -1.132863       -30.8268
  14   2.0000      -1.001604       -27.2550
  15   2.0000      -1.001604       -27.2550
  16   2.0000      -0.999295       -27.1922
  17   2.0000      -0.999294       -27.1922
  18   2.0000      -0.811522       -22.0826
  19   2.0000      -0.811522       -22.0826
  20   2.0000      -0.809566       -22.0294
  21   2.0000      -0.809566       -22.0294
  22   2.0000      -0.696163       -18.9436
  23   2.0000      -0.693959       -18.8836
  24   2.0000      -0.634295       -17.2601
  25   2.0000      -0.632164       -17.2020
  26   2.0000      -0.603467       -16.4212
  27   2.0000      -0.602606       -16.3977
  28   2.0000      -0.575477       -15.6595
  29   2.0000      -0.575476       -15.6595
  30   2.0000      -0.573647       -15.6097
  31   2.0000      -0.573646       -15.6097
  32   2.0000      -0.500025       -13.6064
  33   2.0000      -0.482471       -13.1287
  34   2.0000      -0.482470       -13.1287
  35   2.0000      -0.481093       -13.0912
  36   2.0000      -0.481091       -13.0912
  37   2.0000      -0.471702       -12.8357
  38   2.0000      -0.334831        -9.1112
  39   2.0000      -0.334831        -9.1112
  40   2.0000      -0.308198        -8.3865
  41   2.0000      -0.308197        -8.3865
  42   0.0000       0.138055         3.7567
  43   0.0000       0.138056         3.7567
  44   0.0000       0.168352         4.5811
  45   0.0000       0.168352         4.5811
  46   0.0000       0.230569         6.2741

MULLIKEN ATOMIC CHARGES
-----------------------
   0 C :   -0.114612
   1 H :    0.114605
   2 C :   -0.114608
   3 H :    0.114612
   4 C :   -0.114609
   5 H :    0.114608
   6 C :   -0.114604
   7 H :    0.114610
   8 C :   -0.114615
   9 H :    0.114608
  10 C :   -0.114606
  11 H :    0.114611
  12 C :   -0.114612
  13 H :    0.114605
  14 C :   -0.114608
  15 H :    0.114612
  16 C :   -0.114609
  17 H :    0.114608
  18 C :   -0.114604
  19 H :    0.114610
  20 C :   -0.114615
  21 H :    0.114608
  22 C :   -0.114606
  23 H :    0.114611
Sum of atomic charges:    0.0000000

LOEWDIN ATOMIC CHARGES
----------------------
   0 C :   -0.071870
   1 H :    0.071869
   2 C :   -0.071873
   3 H :    0.071872
   4 C :   -0.071869
   5 H :    0.071870
   6 C :   -0.071871
   7 H :    0.071871
   8 C :   -0.071871
   9 H :    0.071870
  10 C :   -0.071873
  11 H :    0.071872
  12 C :   -0.071870
  13 H :    0.071869
  14 C :   -0.071873
  15 H :    0.071872
  16 C :   -0.071869
  17 H :    0.071870
  18 C :   -0.071871
  19 H :    0.071871
  20 C :   -0.071871
  21 H :    0.071870
  22 C :   -0.071873
  23 H :    0.071872

  Mayer bond orders larger than 0.1
B(  0-C ,  1-H ) :   0.9181 B(  0-C ,  2-C ) :   1.3560 B(  0-C , 10-C ) :   1.3560
B(  2-C ,  3-H ) :   0.9181 B(  2-C ,  4-C ) :   1.3560 B(  4-C ,  5-H ) :   0.9181
B(  4-C ,  6-C ) :   1.3560 B(  6-C ,  7-H ) :   0.9181 B(  6-C ,  8-C ) :   1.3560
B(  8-C ,  9-H ) :   0.9181 B(  8-C , 10-C ) :   1.3560 B( 10-C , 11-H ) :   0.9181
B( 12-C , 13-H ) :   0.9181 B( 12-C , 14-C ) :   1.3560 B( 12-C , 22-C ) :   1.3560
B( 14-C , 15-H ) :   0.9181 B( 14-C , 16-C ) :   1.3560 B( 16-C , 17-H ) :   0.9181
B( 16-C , 18-C ) :   1.3560 B( 18-C , 19-H ) :   0.9181 B( 18-C , 20-C ) :   1.3560
B( 20-C , 21-H ) :   0.9181 B( 20-C , 22-C ) :   1.3560 B( 22-C , 23-H ) :   0.9181

MP2 TOTAL ENERGY:     -462.996729733 Eh
FINAL SINGLE POINT ENERGY      -462.996729733272

DIPOLE MOMENT
-------------
                                X             Y             Z
Electronic contribution:      0.00001      -0.00000      -0.00001
Nuclear contribution   :      0.00000       0.00000      -0.00000
                        -----------------------------------------
Total Dipole Moment    :      0.00002       0.00000      -0.00001
                        -----------------------------------------
Magnitude (a.u.)       :      0.00002
Magnitude (Debye)      :      0.00005

                             ****ORCA TERMINATED NORMALLY****
TOTAL RUN TIME: 0 days 1 hours 27 minutes 50 seconds 411 msec
